<?xml version="1.0" encoding="UTF-8"?>

<!-- generated on 2025-12-16 11:46:20 by Eclipse SUMO sumo Version 1.23.1
<sumoConfiguration xmlns:xsi="http://www.w3.org/2001/XMLSchema-instance" xsi:noNamespaceSchemaLocation="http://sumo.dlr.de/xsd/sumoConfiguration.xsd">

    <input>
        <net-file value="networks\SiouxFalls\network.net.xml"/>
        <route-files value="cache\0upd_od_trips.trips.xml"/>
        <additional-files value="networks\SiouxFalls\detectors.add.xml"/>
    </input>

    <output>
        <output-prefix value="0"/>
        <vehroute-output value="cache\routes.vehroutes.xml"/>
    </output>

    <time>
        <begin value="28300"/>
        <end value="32900"/>
    </time>

    <routing>
        <device.rerouting.probability value="0.1"/>
    </routing>

    <report>
        <xml-validation value="never"/>
        <no-warnings value="true"/>
        <no-step-log value="true"/>
    </report>

    <mesoscopic>
        <mesosim value="true"/>
    </mesoscopic>

    <random_number>
        <seed value="17494"/>
    </random_number>

</sumoConfiguration>
-->

<routes xmlns:xsi="http://www.w3.org/2001/XMLSchema-instance" xsi:noNamespaceSchemaLocation="http://sumo.dlr.de/xsd/routes_file.xsd">
    <vehicle id="1776" depart="28851.00" departLane="free" departSpeed="29.6579" fromTaz="22" toTaz="21" speedFactor="1.1059" arrival="29227.00">
        <route edges="#EdgeID69 #EdgeID65"/>
    </vehicle>

    <vehicle id="1882" depart="28808.00" departLane="free" departSpeed="26.3989" fromTaz="22" toTaz="23" speedFactor="0.9843" arrival="29237.00">
        <route edges="#EdgeID70 #EdgeID73"/>
    </vehicle>

    <vehicle id="1883" depart="28822.00" departLane="free" departSpeed="26.6618" fromTaz="22" toTaz="23" speedFactor="0.9941" arrival="29279.00">
        <route edges="#EdgeID70 #EdgeID72"/>
    </vehicle>

    <vehicle id="1019" depart="28927.00" departLane="free" departSpeed="26.171" fromTaz="21" toTaz="22" speedFactor="0.9758" arrival="29283.00">
        <route edges="#EdgeID65 #EdgeID67"/>
    </vehicle>

    <vehicle id="1891" depart="28936.00" departLane="free" departSpeed="27.0022" fromTaz="22" toTaz="23" speedFactor="1.0068" arrival="29313.00">
        <route edges="#EdgeID70 #EdgeID71"/>
    </vehicle>

    <vehicle id="1021" depart="28952.00" departLane="free" departSpeed="23.7078" fromTaz="21" toTaz="22" speedFactor="0.8840" arrival="29345.00">
        <route edges="#EdgeID65 #EdgeID67"/>
    </vehicle>

    <vehicle id="1010" depart="28819.00" departLane="free" departSpeed="25.8196" fromTaz="21" toTaz="22" speedFactor="0.9627" arrival="29358.00">
        <route edges="#EdgeID65 #EdgeID68"/>
    </vehicle>

    <vehicle id="1778" depart="28918.00" departLane="free" departSpeed="25.272" fromTaz="22" toTaz="21" speedFactor="0.9423" arrival="29366.00">
        <route edges="#EdgeID69 #EdgeID66"/>
    </vehicle>

    <vehicle id="1026" depart="29012.00" departLane="free" departSpeed="25.9722" fromTaz="21" toTaz="22" speedFactor="0.9684" arrival="29373.00">
        <route edges="#EdgeID65 #EdgeID67"/>
    </vehicle>

    <vehicle id="1777" depart="28885.00" departLane="free" departSpeed="24.1005" fromTaz="22" toTaz="21" speedFactor="0.8986" arrival="29382.00">
        <route edges="#EdgeID69 #EdgeID64"/>
    </vehicle>

    <vehicle id="1779" depart="28952.00" departLane="free" departSpeed="27.6729" fromTaz="22" toTaz="21" speedFactor="1.0318" arrival="29393.00">
        <route edges="#EdgeID69 #EdgeID64"/>
    </vehicle>

    <vehicle id="1011" depart="28831.00" departLane="free" departSpeed="24.4255" fromTaz="21" toTaz="22" speedFactor="0.9108" arrival="29398.00">
        <route edges="#EdgeID65 #EdgeID68"/>
    </vehicle>

    <vehicle id="1890" depart="28921.00" departLane="free" departSpeed="24.6208" fromTaz="22" toTaz="23" speedFactor="0.9180" arrival="29407.00">
        <route edges="#EdgeID70 #EdgeID72"/>
    </vehicle>

    <vehicle id="1025" depart="29000.00" departLane="free" departSpeed="29.0675" fromTaz="21" toTaz="22" speedFactor="1.0838" arrival="29410.00">
        <route edges="#EdgeID65 #EdgeID69"/>
    </vehicle>

    <vehicle id="722" depart="28822.00" departLane="free" departSpeed="25.7278" fromTaz="17" toTaz="6" speedFactor="0.9593" arrival="29442.00">
        <route edges="#EdgeID52 #EdgeID47 #EdgeID19 #EdgeID16"/>
    </vehicle>

    <vehicle id="842" depart="28886.00" departLane="free" departSpeed="26.0985" fromTaz="18" toTaz="17" speedFactor="0.9731" arrival="29447.00">
        <route edges="#EdgeID55 #EdgeID49 #EdgeID52"/>
    </vehicle>

    <vehicle id="1307" depart="28845.00" departLane="free" departSpeed="25.943" fromTaz="21" toTaz="23" speedFactor="0.9673" arrival="29470.00">
        <route edges="#EdgeID66 #EdgeID76 #EdgeID71"/>
    </vehicle>

    <vehicle id="2415" depart="29000.00" departLane="free" departSpeed="27.9647" fromTaz="23" toTaz="22" speedFactor="1.0427" arrival="29487.00">
        <route edges="#EdgeID72 #EdgeID70"/>
    </vehicle>

    <vehicle id="2414" depart="28920.00" departLane="free" departSpeed="27.4098" fromTaz="23" toTaz="22" speedFactor="1.0221" arrival="29489.00">
        <route edges="#EdgeID72 #EdgeID68"/>
    </vehicle>

    <vehicle id="1781" depart="29019.00" departLane="free" departSpeed="26.1093" fromTaz="22" toTaz="21" speedFactor="0.9735" arrival="29495.00">
        <route edges="#EdgeID69 #EdgeID64"/>
    </vehicle>

    <vehicle id="1032" depart="29084.00" departLane="free" departSpeed="29.3135" fromTaz="21" toTaz="22" speedFactor="1.0931" arrival="29522.00">
        <route edges="#EdgeID65 #EdgeID69"/>
    </vehicle>

    <vehicle id="1903" depart="29106.00" departLane="free" departSpeed="27.2196" fromTaz="22" toTaz="23" speedFactor="1.0149" arrival="29522.00">
        <route edges="#EdgeID70 #EdgeID73"/>
    </vehicle>

    <vehicle id="2416" depart="29080.00" departLane="free" departSpeed="23.3505" fromTaz="23" toTaz="22" speedFactor="0.8707" arrival="29524.00">
        <route edges="#EdgeID72 #EdgeID67"/>
    </vehicle>

    <vehicle id="35" depart="28850.00" departLane="free" departSpeed="25.3503" fromTaz="13" toTaz="21" speedFactor="0.9452" arrival="29526.00">
        <route edges="#EdgeID39 #EdgeID75 #EdgeID65"/>
    </vehicle>

    <vehicle id="389" depart="29025.00" departLane="free" departSpeed="29.3476" fromTaz="17" toTaz="18" speedFactor="1.0943" arrival="29529.00">
        <route edges="#EdgeID52 #EdgeID50 #EdgeID54"/>
    </vehicle>

    <vehicle id="1906" depart="29149.00" departLane="free" departSpeed="27.1442" fromTaz="22" toTaz="23" speedFactor="1.0121" arrival="29529.00">
        <route edges="#EdgeID70 #EdgeID71"/>
    </vehicle>

    <vehicle id="192" depart="28973.00" departLane="free" departSpeed="25.8116" fromTaz="13" toTaz="23" speedFactor="0.9624" arrival="29540.00">
        <route edges="#EdgeID39 #EdgeID76 #EdgeID71"/>
    </vehicle>

    <vehicle id="1901" depart="29078.00" departLane="free" departSpeed="27.9303" fromTaz="22" toTaz="23" speedFactor="1.0414" arrival="29542.00">
        <route edges="#EdgeID70 #EdgeID72"/>
    </vehicle>

    <vehicle id="804" depart="28849.00" departLane="free" departSpeed="26.4866" fromTaz="17" toTaz="7" speedFactor="0.9876" arrival="29551.00">
        <route edges="#EdgeID52 #EdgeID50 #EdgeID54 #EdgeID18"/>
    </vehicle>

    <vehicle id="3001" depart="29134.00" departLane="free" departSpeed="25.1223" fromTaz="7" toTaz="18" speedFactor="0.9367" arrival="29557.00">
        <route edges="#EdgeID18 #EdgeID55"/>
    </vehicle>

    <vehicle id="2226" depart="28824.00" departLane="free" departSpeed="21.7322" fromTaz="23" toTaz="13" speedFactor="0.8103" arrival="29558.00">
        <route edges="#EdgeID73 #EdgeID74 #EdgeID39"/>
    </vehicle>

    <vehicle id="2227" depart="28870.00" departLane="free" departSpeed="25.4059" fromTaz="23" toTaz="13" speedFactor="0.9473" arrival="29559.00">
        <route edges="#EdgeID73 #EdgeID74 #EdgeID39"/>
    </vehicle>

    <vehicle id="1782" depart="29053.00" departLane="free" departSpeed="28.7821" fromTaz="22" toTaz="21" speedFactor="1.0732" arrival="29562.00">
        <route edges="#EdgeID69 #EdgeID64"/>
    </vehicle>

    <vehicle id="191" depart="28924.00" departLane="free" departSpeed="26.0154" fromTaz="13" toTaz="23" speedFactor="0.9700" arrival="29563.00">
        <route edges="#EdgeID39 #EdgeID76 #EdgeID72"/>
    </vehicle>

    <vehicle id="1905" depart="29135.00" departLane="free" departSpeed="26.4488" fromTaz="22" toTaz="23" speedFactor="0.9862" arrival="29564.00">
        <route edges="#EdgeID70 #EdgeID73"/>
    </vehicle>

    <vehicle id="193" depart="29022.00" departLane="free" departSpeed="26.9219" fromTaz="13" toTaz="23" speedFactor="1.0038" arrival="29566.00">
        <route edges="#EdgeID39 #EdgeID76 #EdgeID71"/>
    </vehicle>

    <vehicle id="1784" depart="29120.00" departLane="free" departSpeed="29.3222" fromTaz="22" toTaz="21" speedFactor="1.0933" arrival="29579.00">
        <route edges="#EdgeID69 #EdgeID64"/>
    </vehicle>

    <vehicle id="2413" depart="28840.00" departLane="free" departSpeed="25.9364" fromTaz="23" toTaz="22" speedFactor="0.9671" arrival="29583.00">
        <route edges="#EdgeID71 #EdgeID41 #EdgeID46 #EdgeID69"/>
    </vehicle>

    <vehicle id="1038" depart="29157.00" departLane="free" departSpeed="26.938" fromTaz="21" toTaz="22" speedFactor="1.0044" arrival="29588.00">
        <route edges="#EdgeID65 #EdgeID70"/>
    </vehicle>

    <vehicle id="194" depart="29072.00" departLane="free" departSpeed="29.856" fromTaz="13" toTaz="23" speedFactor="1.1132" arrival="29589.00">
        <route edges="#EdgeID39 #EdgeID76 #EdgeID71"/>
    </vehicle>

    <vehicle id="1907" depart="29163.00" departLane="free" departSpeed="25.3744" fromTaz="22" toTaz="23" speedFactor="0.9462" arrival="29609.00">
        <route edges="#EdgeID70 #EdgeID73"/>
    </vehicle>

    <vehicle id="1473" depart="28902.00" departLane="free" departSpeed="28.0296" fromTaz="22" toTaz="17" speedFactor="1.0451" arrival="29611.00">
        <route edges="#EdgeID67 #EdgeID45 #EdgeID58 #EdgeID52"/>
    </vehicle>

    <vehicle id="1889" depart="28907.00" departLane="free" departSpeed="30.2476" fromTaz="22" toTaz="23" speedFactor="1.1278" arrival="29611.00">
        <route edges="#EdgeID67 #EdgeID44 #EdgeID42 #EdgeID72"/>
    </vehicle>

    <vehicle id="1475" depart="28926.00" departLane="free" departSpeed="30.5024" fromTaz="22" toTaz="17" speedFactor="1.1373" arrival="29612.00">
        <route edges="#EdgeID67 #EdgeID45 #EdgeID58 #EdgeID52"/>
    </vehicle>

    <vehicle id="2892" depart="28883.00" departLane="free" departSpeed="27.4395" fromTaz="7" toTaz="17" speedFactor="1.0232" arrival="29621.00">
        <route edges="#EdgeID18 #EdgeID55 #EdgeID49 #EdgeID52"/>
    </vehicle>

    <vehicle id="1465" depart="28806.00" departLane="free" departSpeed="32.4763" fromTaz="22" toTaz="17" speedFactor="1.2109" arrival="29623.00">
        <route edges="#EdgeID68 #EdgeID61 #EdgeID58 #EdgeID52"/>
    </vehicle>

    <vehicle id="1012" depart="28843.00" departLane="free" departSpeed="26.3158" fromTaz="21" toTaz="22" speedFactor="0.9812" arrival="29623.00">
        <route edges="#EdgeID64 #EdgeID63 #EdgeID69"/>
    </vehicle>

    <vehicle id="1031" depart="29072.00" departLane="free" departSpeed="25.0767" fromTaz="21" toTaz="22" speedFactor="0.9350" arrival="29624.00">
        <route edges="#EdgeID65 #EdgeID68"/>
    </vehicle>

    <vehicle id="1910" depart="29206.00" departLane="free" departSpeed="32.0602" fromTaz="22" toTaz="23" speedFactor="1.1954" arrival="29634.00">
        <route edges="#EdgeID70 #EdgeID72"/>
    </vehicle>

    <vehicle id="2890" depart="28817.00" departLane="free" departSpeed="30.1859" fromTaz="7" toTaz="17" speedFactor="1.1255" arrival="29636.00">
        <route edges="#EdgeID18 #EdgeID55 #EdgeID49 #EdgeID51"/>
    </vehicle>

    <vehicle id="1888" depart="28893.00" departLane="free" departSpeed="29.8739" fromTaz="22" toTaz="23" speedFactor="1.1140" arrival="29639.00">
        <route edges="#EdgeID69 #EdgeID66 #EdgeID76 #EdgeID71"/>
    </vehicle>

    <vehicle id="1911" depart="29220.00" departLane="free" departSpeed="26.2998" fromTaz="22" toTaz="23" speedFactor="0.9807" arrival="29650.00">
        <route edges="#EdgeID70 #EdgeID73"/>
    </vehicle>

    <vehicle id="2891" depart="28850.00" departLane="free" departSpeed="27.8928" fromTaz="7" toTaz="17" speedFactor="1.0400" arrival="29652.00">
        <route edges="#EdgeID17 #EdgeID22 #EdgeID49 #EdgeID51"/>
    </vehicle>

    <vehicle id="1015" depart="28879.00" departLane="free" departSpeed="27.1392" fromTaz="21" toTaz="22" speedFactor="1.0119" arrival="29655.00">
        <route edges="#EdgeID64 #EdgeID63 #EdgeID67"/>
    </vehicle>

    <vehicle id="443" depart="28834.00" departLane="free" departSpeed="25.2269" fromTaz="17" toTaz="22" speedFactor="0.9406" arrival="29656.00">
        <route edges="#EdgeID53 #EdgeID57 #EdgeID46 #EdgeID69"/>
    </vehicle>

    <vehicle id="843" depart="29058.00" departLane="free" departSpeed="26.5411" fromTaz="18" toTaz="17" speedFactor="0.9896" arrival="29658.00">
        <route edges="#EdgeID55 #EdgeID49 #EdgeID53"/>
    </vehicle>

    <vehicle id="1033" depart="29096.00" departLane="free" departSpeed="24.5902" fromTaz="21" toTaz="22" speedFactor="0.9169" arrival="29659.00">
        <route edges="#EdgeID65 #EdgeID68"/>
    </vehicle>

    <vehicle id="1034" depart="29109.00" departLane="free" departSpeed="22.6027" fromTaz="21" toTaz="22" speedFactor="1.1477" arrival="29660.00">
        <route edges="#EdgeID65 #EdgeID68"/>
    </vehicle>

    <vehicle id="1469" depart="28854.00" departLane="free" departSpeed="29.2123" fromTaz="22" toTaz="17" speedFactor="1.0892" arrival="29668.00">
        <route edges="#EdgeID67 #EdgeID45 #EdgeID58 #EdgeID51"/>
    </vehicle>

    <vehicle id="1884" depart="28836.00" departLane="free" departSpeed="28.051" fromTaz="22" toTaz="23" speedFactor="1.0459" arrival="29685.00">
        <route edges="#EdgeID69 #EdgeID66 #EdgeID76 #EdgeID73"/>
    </vehicle>

    <vehicle id="1894" depart="28978.00" departLane="free" departSpeed="27.0336" fromTaz="22" toTaz="23" speedFactor="1.0080" arrival="29691.00">
        <route edges="#EdgeID67 #EdgeID44 #EdgeID42 #EdgeID73"/>
    </vehicle>

    <vehicle id="1014" depart="28867.00" departLane="free" departSpeed="24.6932" fromTaz="21" toTaz="22" speedFactor="0.9207" arrival="29697.00">
        <route edges="#EdgeID64 #EdgeID63 #EdgeID69"/>
    </vehicle>

    <vehicle id="1016" depart="28891.00" departLane="free" departSpeed="27.1049" fromTaz="21" toTaz="22" speedFactor="1.0107" arrival="29698.00">
        <route edges="#EdgeID64 #EdgeID63 #EdgeID69"/>
    </vehicle>

    <vehicle id="1049" depart="29290.00" departLane="free" departSpeed="22.8122" fromTaz="21" toTaz="22" speedFactor="0.8506" arrival="29698.00">
        <route edges="#EdgeID65 #EdgeID67"/>
    </vehicle>

    <vehicle id="445" depart="28879.00" departLane="free" departSpeed="25.1515" fromTaz="17" toTaz="22" speedFactor="0.9378" arrival="29699.00">
        <route edges="#EdgeID53 #EdgeID57 #EdgeID46 #EdgeID69"/>
    </vehicle>

    <vehicle id="3139" depart="29160.00" departLane="free" departSpeed="33.0356" fromTaz="7" toTaz="6" speedFactor="1.2319" arrival="29700.00">
        <route edges="#EdgeID17 #EdgeID19 #EdgeID15"/>
    </vehicle>

    <vehicle id="1017" depart="28903.00" departLane="free" departSpeed="25.9258" fromTaz="21" toTaz="22" speedFactor="0.9667" arrival="29701.00">
        <route edges="#EdgeID64 #EdgeID63 #EdgeID69"/>
    </vehicle>

    <vehicle id="447" depart="28924.00" departLane="free" departSpeed="29.794" fromTaz="17" toTaz="22" speedFactor="1.1109" arrival="29702.00">
        <route edges="#EdgeID53 #EdgeID57 #EdgeID46 #EdgeID69"/>
    </vehicle>

    <vehicle id="195" depart="29121.00" departLane="free" departSpeed="18.3435" fromTaz="13" toTaz="23" speedFactor="1.1526" arrival="29702.00">
        <route edges="#EdgeID39 #EdgeID76 #EdgeID72"/>
    </vehicle>

    <vehicle id="1018" depart="28915.00" departLane="free" departSpeed="28.866" fromTaz="21" toTaz="22" speedFactor="1.0763" arrival="29704.00">
        <route edges="#EdgeID64 #EdgeID63 #EdgeID69"/>
    </vehicle>

    <vehicle id="726" depart="28998.00" departLane="free" departSpeed="23.9846" fromTaz="17" toTaz="6" speedFactor="0.8943" arrival="29713.00">
        <route edges="#EdgeID52 #EdgeID47 #EdgeID19 #EdgeID14"/>
    </vehicle>

    <vehicle id="727" depart="29042.00" departLane="free" departSpeed="29.7595" fromTaz="17" toTaz="6" speedFactor="1.1096" arrival="29715.00">
        <route edges="#EdgeID52 #EdgeID47 #EdgeID19 #EdgeID14"/>
    </vehicle>

    <vehicle id="37" depart="29050.00" departLane="free" departSpeed="27.2433" fromTaz="13" toTaz="21" speedFactor="1.0158" arrival="29715.00">
        <route edges="#EdgeID39 #EdgeID75 #EdgeID66"/>
    </vehicle>

    <vehicle id="1396" depart="28827.00" departLane="free" departSpeed="24.4619" fromTaz="22" toTaz="13" speedFactor="0.9121" arrival="29724.00">
        <route edges="#EdgeID69 #EdgeID66 #EdgeID74 #EdgeID39"/>
    </vehicle>

    <vehicle id="1051" depart="29314.00" departLane="free" departSpeed="28.6116" fromTaz="21" toTaz="22" speedFactor="1.0668" arrival="29725.00">
        <route edges="#EdgeID65 #EdgeID69"/>
    </vehicle>

    <vehicle id="2893" depart="28916.00" departLane="free" departSpeed="23.7795" fromTaz="7" toTaz="17" speedFactor="0.8867" arrival="29726.00">
        <route edges="#EdgeID17 #EdgeID22 #EdgeID49 #EdgeID53"/>
    </vehicle>

    <vehicle id="2896" depart="29015.00" departLane="free" departSpeed="27.4473" fromTaz="7" toTaz="17" speedFactor="1.0486" arrival="29728.00">
        <route edges="#EdgeID18 #EdgeID55 #EdgeID49 #EdgeID52"/>
    </vehicle>

    <vehicle id="2372" depart="28929.00" departLane="free" departSpeed="23.1403" fromTaz="23" toTaz="21" speedFactor="0.8628" arrival="29729.00">
        <route edges="#EdgeID72 #EdgeID69 #EdgeID64"/>
    </vehicle>

    <vehicle id="1013" depart="28855.00" departLane="free" departSpeed="25.8893" fromTaz="21" toTaz="22" speedFactor="0.9653" arrival="29734.00">
        <route edges="#EdgeID66 #EdgeID75 #EdgeID65 #EdgeID69"/>
    </vehicle>

    <vehicle id="74" depart="28907.00" departLane="free" departSpeed="29.5503" fromTaz="13" toTaz="22" speedFactor="1.1018" arrival="29747.00">
        <route edges="#EdgeID39 #EdgeID76 #EdgeID72 #EdgeID69"/>
    </vehicle>

    <vehicle id="1916" depart="29291.00" departLane="free" departSpeed="21.8326" fromTaz="22" toTaz="23" speedFactor="0.8141" arrival="29748.00">
        <route edges="#EdgeID70 #EdgeID71"/>
    </vehicle>

    <vehicle id="1009" depart="28807.00" departLane="free" departSpeed="24.787" fromTaz="21" toTaz="22" speedFactor="0.9242" arrival="29763.00">
        <route edges="#EdgeID64 #EdgeID63 #EdgeID68"/>
    </vehicle>

    <vehicle id="1398" depart="28931.00" departLane="free" departSpeed="28.3347" fromTaz="22" toTaz="13" speedFactor="1.0565" arrival="29764.00">
        <route edges="#EdgeID69 #EdgeID66 #EdgeID74 #EdgeID39"/>
    </vehicle>

    <vehicle id="1775" depart="28817.00" departLane="free" departSpeed="26.0181" fromTaz="22" toTaz="21" speedFactor="0.9701" arrival="29766.00">
        <route edges="#EdgeID70 #EdgeID72 #EdgeID69 #EdgeID64"/>
    </vehicle>

    <vehicle id="2999" depart="28867.00" departLane="free" departSpeed="25.5729" fromTaz="7" toTaz="18" speedFactor="0.9535" arrival="29771.00">
        <route edges="#EdgeID18 #EdgeID56"/>
    </vehicle>

    <vehicle id="198" depart="29269.00" departLane="free" departSpeed="29.8533" fromTaz="13" toTaz="23" speedFactor="1.1131" arrival="29778.00">
        <route edges="#EdgeID39 #EdgeID76 #EdgeID71"/>
    </vehicle>

    <vehicle id="2898" depart="29081.00" departLane="free" departSpeed="30.9047" fromTaz="7" toTaz="17" speedFactor="1.1523" arrival="29785.00">
        <route edges="#EdgeID18 #EdgeID55 #EdgeID49 #EdgeID53"/>
    </vehicle>

    <vehicle id="2841" depart="29046.00" departLane="free" departSpeed="23.2504" fromTaz="6" toTaz="7" speedFactor="0.8670" arrival="29789.00">
        <route edges="#EdgeID16 #EdgeID20 #EdgeID17"/>
    </vehicle>

    <vehicle id="805" depart="28946.00" departLane="free" departSpeed="26.2541" fromTaz="17" toTaz="7" speedFactor="0.9789" arrival="29793.00">
        <route edges="#EdgeID52 #EdgeID50 #EdgeID54 #EdgeID17"/>
    </vehicle>

    <vehicle id="38" depart="29150.00" departLane="free" departSpeed="28.4741" fromTaz="13" toTaz="21" speedFactor="1.0618" arrival="29793.00">
        <route edges="#EdgeID39 #EdgeID75 #EdgeID66"/>
    </vehicle>

    <vehicle id="2371" depart="28843.00" departLane="free" departSpeed="28.7008" fromTaz="23" toTaz="21" speedFactor="1.0702" arrival="29794.00">
        <route edges="#EdgeID71 #EdgeID41 #EdgeID46 #EdgeID69 #EdgeID65"/>
    </vehicle>

    <vehicle id="2827" depart="28939.00" departLane="free" departSpeed="32.9158" fromTaz="6" toTaz="4" speedFactor="1.2274" arrival="29795.00">
        <route edges="#EdgeID14 #EdgeID4 #EdgeID15 #EdgeID11 #EdgeID8"/>
    </vehicle>

    <vehicle id="2899" depart="29114.00" departLane="free" departSpeed="27.2258" fromTaz="7" toTaz="17" speedFactor="1.0152" arrival="29797.00">
        <route edges="#EdgeID17 #EdgeID22 #EdgeID49 #EdgeID52"/>
    </vehicle>

    <vehicle id="2900" depart="29147.00" departLane="free" departSpeed="30.725" fromTaz="7" toTaz="17" speedFactor="1.1456" arrival="29798.00">
        <route edges="#EdgeID17 #EdgeID22 #EdgeID49 #EdgeID52"/>
    </vehicle>

    <vehicle id="442" depart="28812.00" departLane="free" departSpeed="25.9162" fromTaz="17" toTaz="22" speedFactor="0.9663" arrival="29804.00">
        <route edges="#EdgeID51 #EdgeID28 #EdgeID46 #EdgeID69"/>
    </vehicle>

    <vehicle id="3000" depart="29000.00" departLane="free" departSpeed="28.7737" fromTaz="7" toTaz="18" speedFactor="1.0730" arrival="29804.00">
        <route edges="#EdgeID18 #EdgeID56"/>
    </vehicle>

    <vehicle id="1028" depart="29036.00" departLane="free" departSpeed="28.3188" fromTaz="21" toTaz="22" speedFactor="1.0559" arrival="29807.00">
        <route edges="#EdgeID66 #EdgeID76 #EdgeID72 #EdgeID67"/>
    </vehicle>

    <vehicle id="2746" depart="28918.00" departLane="free" departSpeed="28.2388" fromTaz="6" toTaz="17" speedFactor="1.0529" arrival="29811.00">
        <route edges="#EdgeID14 #EdgeID4 #EdgeID16 #EdgeID22 #EdgeID49 #EdgeID52"/>
    </vehicle>

    <vehicle id="2683" depart="28882.00" departLane="free" departSpeed="30.4211" fromTaz="4" toTaz="6" speedFactor="1.1344" arrival="29812.00">
        <route edges="#EdgeID8 #EdgeID6 #EdgeID9 #EdgeID12 #EdgeID14"/>
    </vehicle>

    <vehicle id="1020" depart="28939.00" departLane="free" departSpeed="25.8972" fromTaz="21" toTaz="22" speedFactor="0.9657" arrival="29812.00">
        <route edges="#EdgeID66 #EdgeID75 #EdgeID65 #EdgeID69"/>
    </vehicle>

    <vehicle id="1486" depart="29058.00" departLane="free" departSpeed="27.4503" fromTaz="22" toTaz="17" speedFactor="1.0235" arrival="29812.00">
        <route edges="#EdgeID67 #EdgeID45 #EdgeID58 #EdgeID53"/>
    </vehicle>

    <vehicle id="1780" depart="28986.00" departLane="free" departSpeed="25.9225" fromTaz="22" toTaz="21" speedFactor="0.9666" arrival="29815.00">
        <route edges="#EdgeID67 #EdgeID46 #EdgeID69 #EdgeID64"/>
    </vehicle>

    <vehicle id="72" depart="28846.00" departLane="free" departSpeed="25.7418" fromTaz="13" toTaz="22" speedFactor="0.9598" arrival="29823.00">
        <route edges="#EdgeID39 #EdgeID75 #EdgeID65 #EdgeID68"/>
    </vehicle>

    <vehicle id="1898" depart="29035.00" departLane="free" departSpeed="25.3583" fromTaz="22" toTaz="23" speedFactor="0.9455" arrival="29823.00">
        <route edges="#EdgeID67 #EdgeID46 #EdgeID70 #EdgeID72"/>
    </vehicle>

    <vehicle id="2750" depart="29231.00" departLane="free" departSpeed="29.2606" fromTaz="6" toTaz="17" speedFactor="1.0910" arrival="29823.00">
        <route edges="#EdgeID16 #EdgeID22 #EdgeID49 #EdgeID53"/>
    </vehicle>

    <vehicle id="1895" depart="28993.00" departLane="free" departSpeed="29.7206" fromTaz="22" toTaz="23" speedFactor="1.1083" arrival="29824.00">
        <route edges="#EdgeID69 #EdgeID66 #EdgeID76 #EdgeID72"/>
    </vehicle>

    <vehicle id="1917" depart="29306.00" departLane="free" departSpeed="21.6543" fromTaz="22" toTaz="23" speedFactor="0.8074" arrival="29828.00">
        <route edges="#EdgeID70 #EdgeID73"/>
    </vehicle>

    <vehicle id="1922" depart="29377.00" departLane="free" departSpeed="28.0993" fromTaz="22" toTaz="23" speedFactor="1.0477" arrival="29834.00">
        <route edges="#EdgeID70 #EdgeID73"/>
    </vehicle>

    <vehicle id="1024" depart="28988.00" departLane="free" departSpeed="24.0977" fromTaz="21" toTaz="22" speedFactor="0.8986" arrival="29836.00">
        <route edges="#EdgeID64 #EdgeID63 #EdgeID67"/>
    </vehicle>

    <vehicle id="77" depart="28999.00" departLane="free" departSpeed="24.4625" fromTaz="13" toTaz="22" speedFactor="0.9121" arrival="29841.00">
        <route edges="#EdgeID39 #EdgeID75 #EdgeID65 #EdgeID67"/>
    </vehicle>

    <vehicle id="388" depart="28875.00" departLane="free" departSpeed="27.3558" fromTaz="17" toTaz="18" speedFactor="1.0201" arrival="29846.00">
        <route edges="#EdgeID53 #EdgeID58 #EdgeID52 #EdgeID50 #EdgeID55"/>
    </vehicle>

    <vehicle id="1899" depart="29050.00" departLane="free" departSpeed="29.3747" fromTaz="22" toTaz="23" speedFactor="1.0953" arrival="29848.00">
        <route edges="#EdgeID69 #EdgeID66 #EdgeID76 #EdgeID73"/>
    </vehicle>

    <vehicle id="2417" depart="29160.00" departLane="free" departSpeed="27.9089" fromTaz="23" toTaz="22" speedFactor="1.0406" arrival="29848.00">
        <route edges="#EdgeID71 #EdgeID41 #EdgeID46 #EdgeID67"/>
    </vehicle>

    <vehicle id="1467" depart="28830.00" departLane="free" departSpeed="25.9023" fromTaz="22" toTaz="17" speedFactor="0.9658" arrival="29850.00">
        <route edges="#EdgeID68 #EdgeID61 #EdgeID58 #EdgeID52"/>
    </vehicle>

    <vehicle id="960" depart="28844.00" departLane="free" departSpeed="23.7061" fromTaz="21" toTaz="17" speedFactor="0.9350" arrival="29851.00">
        <route edges="#EdgeID64 #EdgeID61 #EdgeID58 #EdgeID53"/>
    </vehicle>

    <vehicle id="2305" depart="28885.00" departLane="free" departSpeed="28.0768" fromTaz="23" toTaz="17" speedFactor="1.0470" arrival="29853.00">
        <route edges="#EdgeID72 #EdgeID67 #EdgeID45 #EdgeID58 #EdgeID53"/>
    </vehicle>

    <vehicle id="1793" depart="29423.00" departLane="free" departSpeed="29.5688" fromTaz="22" toTaz="21" speedFactor="1.1025" arrival="29854.00">
        <route edges="#EdgeID69 #EdgeID64"/>
    </vehicle>

    <vehicle id="1471" depart="28878.00" departLane="free" departSpeed="27.4884" fromTaz="22" toTaz="17" speedFactor="1.0250" arrival="29855.00">
        <route edges="#EdgeID68 #EdgeID61 #EdgeID58 #EdgeID52"/>
    </vehicle>

    <vehicle id="961" depart="28932.00" departLane="free" departSpeed="29.0863" fromTaz="21" toTaz="17" speedFactor="1.0845" arrival="29858.00">
        <route edges="#EdgeID64 #EdgeID61 #EdgeID58 #EdgeID53"/>
    </vehicle>

    <vehicle id="2894" depart="28949.00" departLane="free" departSpeed="29.907" fromTaz="7" toTaz="17" speedFactor="1.1151" arrival="29865.00">
        <route edges="#EdgeID17 #EdgeID22 #EdgeID49 #EdgeID51"/>
    </vehicle>

    <vehicle id="1039" depart="29169.00" departLane="free" departSpeed="31.5292" fromTaz="21" toTaz="22" speedFactor="1.1756" arrival="29876.00">
        <route edges="#EdgeID64 #EdgeID63 #EdgeID67"/>
    </vehicle>

    <vehicle id="3137" depart="28872.00" departLane="free" departSpeed="23.1188" fromTaz="7" toTaz="6" speedFactor="0.8620" arrival="29877.00">
        <route edges="#EdgeID18 #EdgeID55 #EdgeID47 #EdgeID19 #EdgeID14"/>
    </vehicle>

    <vehicle id="1896" depart="29007.00" departLane="free" departSpeed="27.6541" fromTaz="22" toTaz="23" speedFactor="1.0311" arrival="29877.00">
        <route edges="#EdgeID69 #EdgeID66 #EdgeID76 #EdgeID72"/>
    </vehicle>

    <vehicle id="723" depart="28866.00" departLane="free" departSpeed="29.1319" fromTaz="17" toTaz="6" speedFactor="1.0862" arrival="29879.00">
        <route edges="#EdgeID51 #EdgeID29 #EdgeID47 #EdgeID19 #EdgeID14"/>
    </vehicle>

    <vehicle id="1062" depart="29447.00" departLane="free" departSpeed="26.0203" fromTaz="21" toTaz="22" speedFactor="0.9703" arrival="29879.00">
        <route edges="#EdgeID65 #EdgeID69"/>
    </vehicle>

    <vehicle id="1040" depart="29181.00" departLane="free" departSpeed="31.3472" fromTaz="21" toTaz="22" speedFactor="1.1689" arrival="29881.00">
        <route edges="#EdgeID64 #EdgeID63 #EdgeID67"/>
    </vehicle>

    <vehicle id="3138" depart="29016.00" departLane="free" departSpeed="27.316" fromTaz="7" toTaz="6" speedFactor="1.0186" arrival="29883.00">
        <route edges="#EdgeID18 #EdgeID54 #EdgeID17 #EdgeID19 #EdgeID16"/>
    </vehicle>

    <vehicle id="2705" depart="28879.00" departLane="free" departSpeed="26.9997" fromTaz="4" toTaz="7" speedFactor="1.0067" arrival="29888.00">
        <route edges="#EdgeID9 #EdgeID13 #EdgeID24 #EdgeID20 #EdgeID18"/>
    </vehicle>

    <vehicle id="1308" depart="28935.00" departLane="free" departSpeed="27.0346" fromTaz="21" toTaz="23" speedFactor="1.0080" arrival="29892.00">
        <route edges="#EdgeID64 #EdgeID63 #EdgeID70 #EdgeID71"/>
    </vehicle>
