<?xml version="1.0" encoding="UTF-8"?>

<!-- generated on 2024-12-20 11:36:31 by Eclipse SUMO sumo Version 1.21.0
<sumoConfiguration xmlns:xsi="http://www.w3.org/2001/XMLSchema-instance" xsi:noNamespaceSchemaLocation="http://sumo.dlr.de/xsd/sumoConfiguration.xsd">

    <input>
        <net-file value="networks\MTS_24_25_model_input1\Augsburg_small.net.xml"/>
        <route-files value="cache\1upd_od_trips.trips.xml"/>
        <additional-files value="networks\MTS_24_25_model_input1\Augsburg_small_detectors.add.xml"/>
    </input>

    <output>
        <output-prefix value="1"/>
        <vehroute-output value="cache\routes.vehroutes.xml"/>
    </output>

    <time>
        <begin value="28300"/>
        <end value="32900"/>
    </time>

    <routing>
        <device.rerouting.probability value="0.1"/>
    </routing>

    <report>
        <xml-validation value="never"/>
        <no-warnings value="true"/>
        <no-step-log value="true"/>
    </report>

    <mesoscopic>
        <mesosim value="true"/>
    </mesoscopic>

    <random_number>
        <seed value="-2860"/>
    </random_number>

</sumoConfiguration>
-->

<routes xmlns:xsi="http://www.w3.org/2001/XMLSchema-instance" xsi:noNamespaceSchemaLocation="http://sumo.dlr.de/xsd/routes_file.xsd">
    <vehicle id="16595" depart="28820.00" departLane="free" departSpeed="14.0976" fromTaz="taz_17" toTaz="taz_17" speedFactor="1.0150" arrival="28824.00">
        <route edges="508233721"/>
    </vehicle>

    <vehicle id="1862" depart="28816.00" departLane="free" departSpeed="14.5488" fromTaz="taz_1" toTaz="taz_1" speedFactor="1.0508" arrival="28844.00">
        <route edges="253367459"/>
    </vehicle>

    <vehicle id="36904" depart="28823.00" departLane="free" departSpeed="25.5436" fromTaz="taz_6" toTaz="taz_6" speedFactor="0.9196" arrival="28845.00">
        <route edges="-25500163"/>
    </vehicle>

    <vehicle id="17997" depart="28840.00" departLane="free" departSpeed="8.4758" fromTaz="taz_18" toTaz="taz_18" speedFactor="1.0176" arrival="28845.00">
        <route edges="314219825"/>
    </vehicle>

    <vehicle id="12374" depart="28815.00" departLane="free" departSpeed="11.086" fromTaz="taz_14" toTaz="taz_8" speedFactor="1.0023" arrival="28846.00">
        <route edges="-136086291#1 -136086292#2 -136086290 -136086299"/>
    </vehicle>

    <vehicle id="3911" depart="28824.00" departLane="free" departSpeed="16.7065" fromTaz="taz_10" toTaz="taz_10" speedFactor="1.2028" arrival="28854.00">
        <route edges="30114683 -30114683"/>
    </vehicle>

    <vehicle id="31666" depart="28822.00" departLane="free" departSpeed="14.058" fromTaz="taz_3" toTaz="taz_3" speedFactor="0.9838" arrival="28863.00">
        <route edges="314694093"/>
    </vehicle>

    <vehicle id="40417" depart="28821.00" departLane="free" departSpeed="27.2523" fromTaz="taz_8" toTaz="taz_8" speedFactor="1.2258" arrival="28866.00">
        <route edges="-136086299 136086299"/>
    </vehicle>

    <vehicle id="12375" depart="28843.00" departLane="free" departSpeed="30.4135" fromTaz="taz_14" toTaz="taz_8" speedFactor="1.0948" arrival="28868.00">
        <route edges="24663071 136086293 -136086290 -136086299"/>
    </vehicle>

    <vehicle id="19882" depart="28839.00" departLane="free" departSpeed="15.0609" fromTaz="taz_19" toTaz="taz_19" speedFactor="1.0843" arrival="28870.00">
        <route edges="314979047#0 289205807 314959411"/>
    </vehicle>

    <vehicle id="27531" depart="28863.00" departLane="free" departSpeed="13.4469" fromTaz="taz_22" toTaz="taz_22" speedFactor="0.9681" arrival="28877.00">
        <route edges="46566884 96600675 367108605#0"/>
    </vehicle>

    <vehicle id="13058" depart="28865.00" departLane="free" departSpeed="15.5975" fromTaz="taz_15" toTaz="taz_15" speedFactor="1.1230" arrival="28879.00">
        <route edges="245337363#0 770023765#0 770023764"/>
    </vehicle>

    <vehicle id="14908" depart="28819.00" departLane="free" departSpeed="14.2873" fromTaz="taz_16" toTaz="taz_16" speedFactor="1.0286" arrival="28883.00">
        <route edges="55204871#0"/>
    </vehicle>

    <vehicle id="1863" depart="28854.00" departLane="free" departSpeed="11.9104" fromTaz="taz_1" toTaz="taz_1" speedFactor="0.9682" arrival="28886.00">
        <route edges="253367459"/>
    </vehicle>

    <vehicle id="23697" depart="28886.00" departLane="free" departSpeed="13.6928" fromTaz="taz_20" toTaz="taz_20" speedFactor="0.9858" arrival="28892.00">
        <route edges="-76791932#1 76791932#0 4085490 -27137649#2"/>
    </vehicle>

    <vehicle id="40418" depart="28869.00" departLane="free" departSpeed="27.97" fromTaz="taz_8" toTaz="taz_8" speedFactor="1.0981" arrival="28893.00">
        <route edges="136086299"/>
    </vehicle>

    <vehicle id="36905" depart="28869.00" departLane="free" departSpeed="23.801" fromTaz="taz_6" toTaz="taz_6" speedFactor="0.8568" arrival="28893.00">
        <route edges="-25500163"/>
    </vehicle>

    <vehicle id="14909" depart="28857.00" departLane="free" departSpeed="14.8817" fromTaz="taz_16" toTaz="taz_16" speedFactor="1.0714" arrival="28894.00">
        <route edges="27140740#0 314979007 -314979007 -27140740#2 -87274618#2 -1301942213"/>
    </vehicle>

    <vehicle id="36810" depart="28820.00" departLane="free" departSpeed="25.4945" fromTaz="taz_6" toTaz="taz_5" speedFactor="0.9347" arrival="28895.00">
        <route edges="-25500163 1151939529#0 1151939529#1 -5024685 5024684 -52459522 -100442350 -186944206"/>
    </vehicle>

    <vehicle id="33270" depart="28849.00" departLane="free" departSpeed="15.0887" fromTaz="taz_4" toTaz="taz_3" speedFactor="1.0863" arrival="28899.00">
        <route edges="314694094#0 193406363#0 -314694093"/>
    </vehicle>

    <vehicle id="38420" depart="28886.00" departLane="free" departSpeed="17.4591" fromTaz="taz_7" toTaz="taz_7" speedFactor="1.0474" arrival="28903.00">
        <route edges="387152470#0 387152471#0 387152473 87457318#0"/>
    </vehicle>

    <vehicle id="0" depart="28839.00" departLane="free" departSpeed="13.4465" fromTaz="taz_0" toTaz="taz_0" speedFactor="0.9722" arrival="28905.00">
        <route edges="1221327698 -37717864#3 55156871 56214749"/>
    </vehicle>

    <vehicle id="5674" depart="28856.00" departLane="free" departSpeed="12.0983" fromTaz="taz_11" toTaz="taz_11" speedFactor="1.0632" arrival="28905.00">
        <route edges="-451785215"/>
    </vehicle>

    <vehicle id="40419" depart="28882.00" departLane="free" departSpeed="25.12" fromTaz="taz_8" toTaz="taz_8" speedFactor="0.9043" arrival="28905.00">
        <route edges="-136086299"/>
    </vehicle>

    <vehicle id="16596" depart="28860.00" departLane="free" departSpeed="13.826" fromTaz="taz_17" toTaz="taz_17" speedFactor="0.9954" arrival="28913.00">
        <route edges="92481414 -313864259 -63538377#1 66462167 66462157#0 63538377#0 313864259 92481424 92481421 23440413#0 314219829#0"/>
    </vehicle>

    <vehicle id="1864" depart="28880.00" departLane="free" departSpeed="10.8262" fromTaz="taz_1" toTaz="taz_1" speedFactor="0.9535" arrival="28914.00">
        <route edges="29830925"/>
    </vehicle>

    <vehicle id="27532" depart="28887.00" departLane="free" departSpeed="12.5492" fromTaz="taz_22" toTaz="taz_22" speedFactor="0.9035" arrival="28918.00">
        <route edges="202997195#0 202997194#0 -129356994"/>
    </vehicle>

    <vehicle id="15153" depart="28821.00" departLane="free" departSpeed="13.7955" fromTaz="taz_16" toTaz="taz_19" speedFactor="0.9932" arrival="28921.00">
        <route edges="314979006#0 27140740#0 314979007 27140741 314979009#0 10751000 314979044 314979047#0 314979053#0 -28756704"/>
    </vehicle>

    <vehicle id="47" depart="28842.00" departLane="free" departSpeed="4.6653" fromTaz="taz_0" toTaz="taz_1" speedFactor="0.9408" arrival="28922.00">
        <route edges="55156871 56214749 55156892 2405727 38573521#0 38573521#1 38573522 56214748#1 56214748#2 2472598#0 4227435 29830925 253367459"/>
    </vehicle>

    <vehicle id="35278" depart="28817.00" departLane="free" departSpeed="24.3619" fromTaz="taz_5" toTaz="taz_6" speedFactor="0.8770" arrival="28924.00">
        <route edges="186944206 100442350 56989214 -100442351 5024682 5024685 1151939530 1283631034 -25500163"/>
    </vehicle>

    <vehicle id="31750" depart="28873.00" departLane="free" departSpeed="10.3998" fromTaz="taz_3" toTaz="taz_4" speedFactor="0.9868" arrival="28925.00">
        <route edges="314694093"/>
    </vehicle>

    <vehicle id="17765" depart="28842.00" departLane="free" departSpeed="13.9622" fromTaz="taz_18" toTaz="taz_15" speedFactor="1.0052" arrival="28926.00">
        <route edges="-48418823#1 4726991 48418826 159156945 159156947 205623117 161735607#0 314219820 314219818 163004235#0 32849784#0 -32849784#3"/>
    </vehicle>

    <vehicle id="35257" depart="28888.00" departLane="free" departSpeed="21.7668" fromTaz="taz_5" toTaz="taz_5" speedFactor="1.0490" arrival="28926.00">
        <route edges="-186944206"/>
    </vehicle>

    <vehicle id="25380" depart="28822.00" departLane="free" departSpeed="14.2272" fromTaz="taz_21" toTaz="taz_19" speedFactor="1.0244" arrival="28927.00">
        <route edges="157862192#0 23441050 24859894#0 314959428 8404360 1085071446 -70843444 -8404357 27140741 314979009#0 10751000 314979044 314979047#0 314979053#0"/>
    </vehicle>

    <vehicle id="11395" depart="28929.00" departLane="free" departSpeed="16.872" fromTaz="taz_14" toTaz="taz_14" speedFactor="0.8679" arrival="28930.00">
        <route edges="-136086291#1"/>
    </vehicle>

    <vehicle id="31749" depart="28825.00" departLane="free" departSpeed="15.0047" fromTaz="taz_3" toTaz="taz_4" speedFactor="1.1576" arrival="28931.00">
        <route edges="-314694093 314694093 193406364 314694094#0 5024272#0"/>
    </vehicle>

    <vehicle id="36906" depart="28914.00" departLane="free" departSpeed="30.1006" fromTaz="taz_6" toTaz="taz_6" speedFactor="1.0836" arrival="28933.00">
        <route edges="-25500163"/>
    </vehicle>

    <vehicle id="29747" depart="28923.00" departLane="free" departSpeed="16.0138" fromTaz="taz_23" toTaz="taz_23" speedFactor="1.1529" arrival="28935.00">
        <route edges="155192440#1 75250970 67918496 96881861 75258483"/>
    </vehicle>

    <vehicle id="17009" depart="28830.00" departLane="free" departSpeed="13.8011" fromTaz="taz_17" toTaz="taz_21" speedFactor="0.9936" arrival="28937.00">
        <route edges="23440413#0 314219829#0 -314219829#1 -23440413#2 -48113118#2 92481414 -313864259 -63538377#1 66462167 66154341#0 66154343 66462141 -138644691 -23440569#2 24859893#0 23440971"/>
    </vehicle>

    <vehicle id="39013" depart="28908.00" departLane="free" departSpeed="33.562" fromTaz="taz_8" toTaz="taz_14" speedFactor="1.2082" arrival="28937.00">
        <route edges="136086299 136086290 136086292#0 136086291#0 24663071"/>
    </vehicle>

    <vehicle id="33307" depart="28920.00" departLane="free" departSpeed="10.7227" fromTaz="taz_4" toTaz="taz_4" speedFactor="0.8651" arrival="28938.00">
        <route edges="314694101#0"/>
    </vehicle>

    <vehicle id="27529" depart="28813.00" departLane="free" departSpeed="14.7861" fromTaz="taz_22" toTaz="taz_22" speedFactor="1.0646" arrival="28940.00">
        <route edges="367108605#0 367108605#3 46566787 367108600#0 46566816#0 367108602 202998150#0 -73236575 48094654#0 238182839#0 4295967 542668787 367108603#0 46566835#0 367108606#0 96609025#0"/>
    </vehicle>

    <vehicle id="5673" depart="28819.00" departLane="free" departSpeed="11.4846" fromTaz="taz_11" toTaz="taz_11" speedFactor="1.0203" arrival="28943.00">
        <route edges="83703271 129691281 315036748#0 -315036748#2 -129691281 -451785215"/>
    </vehicle>

    <vehicle id="16598" depart="28940.00" departLane="free" departSpeed="15.0901" fromTaz="taz_17" toTaz="taz_17" speedFactor="1.0864" arrival="28945.00">
        <route edges="27145331#0 314219828"/>
    </vehicle>

    <vehicle id="21679" depart="28901.00" departLane="free" departSpeed="15.6383" fromTaz="taz_2" toTaz="taz_2" speedFactor="1.1259" arrival="28946.00">
        <route edges="-314959468#1 314959468#0"/>
    </vehicle>

    <vehicle id="7538" depart="28920.00" departLane="free" departSpeed="15.6725" fromTaz="taz_12" toTaz="taz_12" speedFactor="1.0784" arrival="28946.00">
        <route edges="335315683"/>
    </vehicle>

    <vehicle id="12376" depart="28871.00" departLane="free" departSpeed="22.3024" fromTaz="taz_14" toTaz="taz_8" speedFactor="0.8029" arrival="28949.00">
        <route edges="136086285 -136086285 136086293 -136086290 -136086299"/>
    </vehicle>

    <vehicle id="25219" depart="28878.00" departLane="free" departSpeed="14.3706" fromTaz="taz_21" toTaz="taz_17" speedFactor="1.0346" arrival="28949.00">
        <route edges="4399781#0 313864274 80038030 92481419 92481427#0 66462157#0 63538377#0 313864259 92481424"/>
    </vehicle>

    <vehicle id="25040" depart="28813.00" departLane="free" departSpeed="13.483" fromTaz="taz_21" toTaz="taz_15" speedFactor="0.9707" arrival="28954.00">
        <route edges="23440971 314959414 157862192#0 23441011#0 72522473 59217898 59217900 74212594#0 23364926#0 23487079#0 988444204#0 23487607#0 1158536742 1158536743#0 1172084482 245337363#0 770023765#0 770023764 48114680#0 96283928 -491942734 -4727102#2"/>
    </vehicle>

    <vehicle id="19884" depart="28890.00" departLane="free" departSpeed="9.3671" fromTaz="taz_19" toTaz="taz_19" speedFactor="0.9294" arrival="28954.00">
        <route edges="10751000 314979044 314979047#0 289205807 314959411 26050168 314959410 314959412#0 26050337#0"/>
    </vehicle>

    <vehicle id="25666" depart="28865.00" departLane="free" departSpeed="15.3318" fromTaz="taz_21" toTaz="taz_21" speedFactor="1.1038" arrival="28956.00">
        <route edges="59217900 74212594#0 79611116#0 452552015 23440971 314959414 157862192#0 23441050"/>
    </vehicle>

    <vehicle id="25665" depart="28822.00" departLane="free" departSpeed="12.0162" fromTaz="taz_21" toTaz="taz_21" speedFactor="0.8651" arrival="28958.00">
        <route edges="4399781#0 313864274 80038030 92481419 92481427#0 -92481427#2 92481420 -80038030 -313864274 -4399781#5 23441011#0"/>
    </vehicle>

    <vehicle id="36811" depart="28858.00" departLane="free" departSpeed="27.8385" fromTaz="taz_6" toTaz="taz_5" speedFactor="1.0790" arrival="28958.00">
        <route edges="1283631034 -25500163 1151939529#0 1151939529#1 -5024685 5024684 -52459522 -100442350 -186944206"/>
    </vehicle>

    <vehicle id="39010" depart="28818.00" departLane="free" departSpeed="25.7159" fromTaz="taz_8" toTaz="taz_14" speedFactor="0.9804" arrival="28961.00">
        <route edges="-136086299 136086299 136086290 136086292#0 136086291#0 136086289 665118010 136086294 136086298 665108500 -665108500 -136086298 -136086294 -665118010"/>
    </vehicle>

    <vehicle id="19684" depart="28830.00" departLane="free" departSpeed="12.2426" fromTaz="taz_19" toTaz="taz_16" speedFactor="0.8814" arrival="28961.00">
        <route edges="314979047#0 10750999#4 314979050 -314979010 -27140741 -314979007 -27140740#2 -314979006#2 -48125857"/>
    </vehicle>

    <vehicle id="29746" depart="28841.00" departLane="free" departSpeed="19.033" fromTaz="taz_23" toTaz="taz_23" speedFactor="0.9791" arrival="28962.00">
        <route edges="289199211 155192438 289199216 289199215 52870863 289197238 23424321 138512862 -78303123 -1085071439 -1140286851 -23548188 -1140286850 23390529 138512864 52870861 289197237 333755631 289199217 289199214"/>
    </vehicle>

    <vehicle id="40420" depart="28915.00" departLane="free" departSpeed="25.9076" fromTaz="taz_8" toTaz="taz_8" speedFactor="0.9326" arrival="28963.00">
        <route edges="-136086299 136086299"/>
    </vehicle>

    <vehicle id="35279" depart="28850.00" departLane="free" departSpeed="29.1589" fromTaz="taz_5" toTaz="taz_6" speedFactor="1.2014" arrival="28964.00">
        <route edges="-186944206 186944206 100442350 56989214 -100442351 5024682 5024685 1151939530 1283631034 -25500163"/>
    </vehicle>

    <vehicle id="15241" depart="28863.00" departLane="free" departSpeed="14.9831" fromTaz="taz_16" toTaz="taz_2" speedFactor="1.0787" arrival="28965.00">
        <route edges="8404361#0 639817681 23441080 143570204#0 26052914 942790902 4341194#0 942787641#0 314959452#0 -94689468 -314959455 -314959449"/>
    </vehicle>

    <vehicle id="27125" depart="28822.00" departLane="free" departSpeed="12.983" fromTaz="taz_22" toTaz="taz_17" speedFactor="0.9347" arrival="28969.00">
        <route edges="367108606#0 96609025#0 96609025#1 542668792 202997194#0 -129356994 -509615018 -105469619#2 -509615005 -1018930783 -36771588#3 -250816618#2 -4319144 8385716 313864266#0 149668497 313864263#0 1297708978 -251846613 -313864262 -56395962 -915553600 110155560#0 110155562 508233721 -314219828 -27145331#1 -26055930"/>
    </vehicle>

    <vehicle id="25041" depart="28838.00" departLane="free" departSpeed="14.7734" fromTaz="taz_21" toTaz="taz_15" speedFactor="1.0636" arrival="28970.00">
        <route edges="314959414 157862192#0 23441011#0 72522473 59217898 59217900 74212594#0 23364926#0 23487079#0 988444204#0 23487607#0 1158536742 1158536743#0 1172084482 245337363#0 770023765#0 770023764 48114680#0 96283928 96283929#0"/>
    </vehicle>

    <vehicle id="40421" depart="28948.00" departLane="free" departSpeed="26.1882" fromTaz="taz_8" toTaz="taz_8" speedFactor="0.9427" arrival="28970.00">
        <route edges="-136086299"/>
    </vehicle>

    <vehicle id="16392" depart="28826.00" departLane="free" departSpeed="14.4192" fromTaz="taz_17" toTaz="taz_15" speedFactor="1.0381" arrival="28971.00">
        <route edges="342399993 342400009 -342400009 -154305153 -48113502#1 -342399994#2 -189874421 -27141257#1 23439237#0 -380341560 -189241403 -314077663#1 -160141732 158464185#0 160141721 -159007791 -1249868665#1 32849788#0 71216908 176833980 48113499 1172084482 245337363#0 770023765#0 -32849784#3 109446473#0 243220284"/>
    </vehicle>

    <vehicle id="21676" depart="28815.00" departLane="free" departSpeed="13.2143" fromTaz="taz_2" toTaz="taz_2" speedFactor="0.9514" arrival="28972.00">
        <route edges="314959468#0 866042192 314959455 94689468 -94689468 -314959455 -314959449 -314959468#1"/>
    </vehicle>

    <vehicle id="25218" depart="28826.00" departLane="free" departSpeed="13.383" fromTaz="taz_21" toTaz="taz_17" speedFactor="0.9635" arrival="28974.00">
        <route edges="72522473 59217898 59217900 74212594#0 33434066#0 313864276#0 23440569#0 559226826 66462146 313864283 72492110 72492118 313864282#0 66462157#0 63538377#0 313864259 92481424 92481421 23440413#0 314219829#0 26055930 27145331#0 314219828"/>
    </vehicle>

    <vehicle id="13162" depart="28824.00" departLane="free" departSpeed="13.0288" fromTaz="taz_15" toTaz="taz_17" speedFactor="0.9380" arrival="28975.00">
        <route edges="32849784#0 59735501#0 314077668#0 71216908 176833980 109434625#0 -23487607#2 -988444204#1 -23487616#2 -23364926#1 33434066#0 313864276#0 23440569#0 559226826 66462146 313864283 72492110 72492118 313864282#0 66462157#0 63538377#0 313864259 92481424 92481421 23440413#0 314219829#0 26055930 -26055930"/>
    </vehicle>

    <vehicle id="35280" depart="28885.00" departLane="free" departSpeed="29.0575" fromTaz="taz_5" toTaz="taz_6" speedFactor="1.1558" arrival="28976.00">
        <route edges="186944206 100442350 56989214 -100442351 5024682 5024685 1151939530 1283631034 -25500163"/>
    </vehicle>

    <vehicle id="17998" depart="28918.00" departLane="free" departSpeed="13.9413" fromTaz="taz_18" toTaz="taz_18" speedFactor="1.0038" arrival="28976.00">
        <route edges="-315036728#2 -315036725 -175411526 175411526 315036725 315036728#0 736793840#1"/>
    </vehicle>

    <vehicle id="3912" depart="28872.00" departLane="free" departSpeed="7.2254" fromTaz="taz_10" toTaz="taz_10" speedFactor="0.8674" arrival="28977.00">
        <route edges="-4088556 4088556 314259410#0 -30114683"/>
    </vehicle>

    <vehicle id="1865" depart="28912.00" departLane="free" departSpeed="11.3517" fromTaz="taz_1" toTaz="taz_1" speedFactor="1.1004" arrival="28977.00">
        <route edges="29830925 253367459"/>
    </vehicle>

    <vehicle id="19885" depart="28916.00" departLane="free" departSpeed="12.7482" fromTaz="taz_19" toTaz="taz_19" speedFactor="0.9178" arrival="28977.00">
        <route edges="314979047#0 10750999#4 314979050 -314979010"/>
    </vehicle>

    <vehicle id="1832" depart="28860.00" departLane="free" departSpeed="10.6265" fromTaz="taz_1" toTaz="taz_0" speedFactor="0.8863" arrival="28982.00">
        <route edges="29830925 253367459 112391032 2472598#2 2472597 56214746 55156871 2372733"/>
    </vehicle>

    <vehicle id="9455" depart="28865.00" departLane="free" departSpeed="14.022" fromTaz="taz_13" toTaz="taz_13" speedFactor="1.0173" arrival="28982.00">
        <route edges="-30673907#1 -48092236#2 48092236#0 314256541"/>
    </vehicle>

    <vehicle id="25381" depart="28866.00" departLane="free" departSpeed="12.885" fromTaz="taz_21" toTaz="taz_19" speedFactor="0.9277" arrival="28982.00">
        <route edges="314959414 157862192#0 23441050 24859894#0 314959428 8404360 1085071446 -70843444 -8404357 27140741 314979009#0 10751000 314979044"/>
    </vehicle>

    <vehicle id="13563" depart="28815.00" departLane="free" departSpeed="11.8769" fromTaz="taz_15" toTaz="taz_21" speedFactor="0.8552" arrival="28984.00">
        <route edges="314219818 158982610#0 243220284 32849788#0 71216908 176833980 109434625#0 -23487607#2 -988444204#1 -23487616#2 -23364926#1 79611116#0 452552015 23440971 314959414 157862192#0 4399781#0"/>
    </vehicle>

    <vehicle id="25042" depart="28863.00" departLane="free" departSpeed="13.337" fromTaz="taz_21" toTaz="taz_15" speedFactor="0.9604" arrival="28984.00">
        <route edges="314959415#0 23441011#0 72522473 59217898 59217900 74212594#0 23364926#0 23487079#0 988444204#0 23487607#0 1158536742 1158536743#0 1172084482 245337363#0 770023765#0 770023764 48114680#0 96283927"/>
    </vehicle>

    <vehicle id="12379" depart="28956.00" departLane="free" departSpeed="27.8661" fromTaz="taz_14" toTaz="taz_8" speedFactor="1.0031" arrival="28984.00">
        <route edges="24663071 136086293 -136086290 -136086299"/>
    </vehicle>

    <vehicle id="21677" depart="28844.00" departLane="free" departSpeed="12.085" fromTaz="taz_2" toTaz="taz_2" speedFactor="0.9662" arrival="28985.00">
        <route edges="314959468#0 866042192 314959455 94689468 -94689468 -314959455 -314959449"/>
    </vehicle>

    <vehicle id="39011" depart="28863.00" departLane="free" departSpeed="24.9643" fromTaz="taz_8" toTaz="taz_14" speedFactor="1.1465" arrival="28988.00">
        <route edges="136086299 136086290 136086292#0 136086291#0 136086289 665118010 136086294 136086298 665108500 -665108500 -136086298 -136086294 -665118010 -136086289"/>
    </vehicle>

    <vehicle id="5675" depart="28892.00" departLane="free" departSpeed="15.2576" fromTaz="taz_11" toTaz="taz_11" speedFactor="1.0985" arrival="28988.00">
        <route edges="-451785215 83703271"/>
    </vehicle>

    <vehicle id="18224" depart="28824.00" departLane="free" departSpeed="12.1149" fromTaz="taz_18" toTaz="taz_20" speedFactor="0.8722" arrival="28989.00">
        <route edges="315036754 -315036754 -315036749 -48418823#1 -175411531#3 -59283027#1 -23403348#1 -23403348#0 4110234#0 282412037#0 32849791 55344651 315108950 315108945 315108956#0 -48516894 -1106082052 -315108996 -315108997#4 -149893629 -27137649#2"/>
    </vehicle>

    <vehicle id="17070" depart="28842.00" departLane="free" departSpeed="12.9413" fromTaz="taz_17" toTaz="taz_22" speedFactor="0.9317" arrival="28989.00">
        <route edges="-26055930 26055930 27145331#0 314219828 110155550#0 110155572 110155555 313864261 313864262 251846613 17971754#0 48113569#0 23721871#0 4319144 313864265 36771588#0 313864264 509615005 247486939 509615018 129356994 202997195#0 87454990#0 96600675 367108605#0"/>
    </vehicle>

    <vehicle id="15154" depart="28862.00" departLane="free" departSpeed="12.0162" fromTaz="taz_16" toTaz="taz_19" speedFactor="0.8651" arrival="28994.00">
        <route edges="143570204#0 26052914 942790902 4341194#0 942787641#0 314959452#0 4341179#0 -169603752 4341176#0 -4341177 4341174 56145343#0 26050337#0"/>
    </vehicle>

    <vehicle id="21680" depart="28930.00" departLane="free" departSpeed="9.8602" fromTaz="taz_2" toTaz="taz_2" speedFactor="0.8263" arrival="28994.00">
        <route edges="-314959468#1 314959468#0"/>
    </vehicle>

    <vehicle id="14910" depart="28894.00" departLane="free" departSpeed="14.1386" fromTaz="taz_16" toTaz="taz_16" speedFactor="1.0179" arrival="28996.00">
        <route edges="87274618#0 -87274618#2 -1301942213 26053107#0 47467402#0 314959415#0 23441050 24859894#0 314959428 8404360 1085071446 -70843444 -8404357"/>
    </vehicle>

    <vehicle id="16597" depart="28900.00" departLane="free" departSpeed="11.1884" fromTaz="taz_17" toTaz="taz_17" speedFactor="0.8055" arrival="28998.00">
        <route edges="23440413#0 314219829#0 26055930 27145331#0 314219828 110155550#0 110155572 110155555 313864261 313864262 251846613 17971754#0 48113569#0 149668497 313864263#0 1297708978 -251846613 -313864262 -56395962 -915553600 110155560#0"/>
    </vehicle>

    <vehicle id="27536" depart="28987.00" departLane="free" departSpeed="14.481" fromTaz="taz_22" toTaz="taz_22" speedFactor="1.0429" arrival="28998.00">
        <route edges="46566884 96600675"/>
    </vehicle>

    <vehicle id="20451" depart="28815.00" departLane="free" departSpeed="12.7071" fromTaz="taz_19" toTaz="taz_4" speedFactor="0.9150" arrival="29001.00">
        <route edges="10751000 314979044 314979047#0 289205807 314959411 26050168 314959410 314959412#0 5011587#0 289205811#0 289205810#0 314959420 314959421 314959417#0 123495411 314959440 314959443 314959436#0 314959438#0 314959434 314959435#0 314959435#1 314959437 314959439#0 149674696#0 149674696#2 149674696#4 314694104 203008220 718067345 314694103 314694105#0"/>
    </vehicle>

    <vehicle id="35281" depart="28915.00" departLane="free" departSpeed="23.3797" fromTaz="taz_5" toTaz="taz_6" speedFactor="0.9664" arrival="29001.00">
        <route edges="186944206 100442350 56989214 -100442351 5024682 5024685 1151939530 1283631034"/>
    </vehicle>

    <vehicle id="5771" depart="28815.00" departLane="free" departSpeed="10.7053" fromTaz="taz_11" toTaz="taz_12" speedFactor="0.9642" arrival="29004.00">
        <route edges="83703271 129691281 315036748#0 4088577#0 315036723 315036721#0 4097511#0 1091857959 35220672 35221122 35221123 335315684 335315683"/>
    </vehicle>

    <vehicle id="36907" depart="28960.00" departLane="free" departSpeed="27.0712" fromTaz="taz_6" toTaz="taz_6" speedFactor="0.9745" arrival="29004.00">
        <route edges="-25500163 1283631034"/>
    </vehicle>

    <vehicle id="13565" depart="28874.00" departLane="free" departSpeed="15.3846" fromTaz="taz_15" toTaz="taz_21" speedFactor="1.1093" arrival="29005.00">
        <route edges="96283928 -491942734 4414352#0 59735501#0 314077668#0 71216908 176833980 109434625#0 -23487607#2 -988444204#1 -23487616#2 -23364926#1 79611116#0 452552015 23440971 314959414 157862192#0 23441011#0 72522473 59217898"/>
    </vehicle>

    <vehicle id="16464" depart="28841.00" departLane="free" departSpeed="15.0546" fromTaz="taz_17" toTaz="taz_16" speedFactor="1.0839" arrival="29006.00">
        <route edges="110155550#0 146373847 508233721 -314219828 -27145331#1 -26055930 -314219829#1 -23440413#2 -48113118#2 92481414 -313864259 -63538377#1 66462167 -92481427#2 92481420 -80038030 -313864274 -4399781#5 23441050 24859894#0 314959428 8404360 1085071446 -70843444 -8404357 -314979007"/>
    </vehicle>

    <vehicle id="8456" depart="28814.00" departLane="free" departSpeed="16.5145" fromTaz="taz_12" toTaz="taz_23" speedFactor="0.9907" arrival="29011.00">
        <route edges="-335315683 -335315684 -35221123 -48083437 -35220672 -1091857958 -4097511#2 -315036704#2 -106555547 -67918498 67918493 67918496 48100730 96881862 27586250 59538916"/>
    </vehicle>

    <vehicle id="18225" depart="28871.00" departLane="free" departSpeed="15.7838" fromTaz="taz_18" toTaz="taz_20" speedFactor="1.1366" arrival="29012.00">
        <route edges="-315036743 -319590716#1 -315036728#2 -315036725 -175411526 175411527#0 -59283027#1 -23403348#1 -23403348#0 4110234#0 282412037#0 32849791 55344651 315108950 315108945 315108956#0 48101469#0 48101469#2 -315109000#2 -1106168722 -315109001 -1243405088 1243405085"/>
    </vehicle>

    <vehicle id="12377" depart="28900.00" departLane="free" departSpeed="25.6132" fromTaz="taz_14" toTaz="taz_8" speedFactor="1.0161" arrival="29013.00">
        <route edges="136086294 136086298 665108500 -665108500 -136086298 -136086294 -665118010 -136086289 -136086291#1 -136086292#2 -136086290 -136086299"/>
    </vehicle>

    <vehicle id="1866" depart="28946.00" departLane="free" departSpeed="11.7785" fromTaz="taz_1" toTaz="taz_1" speedFactor="1.0681" arrival="29013.00">
        <route edges="253367459 29830925"/>
    </vehicle>

    <vehicle id="36813" depart="28935.00" departLane="free" departSpeed="25.9798" fromTaz="taz_6" toTaz="taz_5" speedFactor="0.9353" arrival="29014.00">
        <route edges="-25500163 1151939529#0 1151939529#1 -5024685 5024684 -52459522 -100442350 -186944206"/>
    </vehicle>

    <vehicle id="25288" depart="28820.00" departLane="free" departSpeed="15.0632" fromTaz="taz_21" toTaz="taz_18" speedFactor="1.0846" arrival="29015.00">